ITEM: TIMESTEP
0
ITEM: NUMBER OF ATOMS
692
ITEM: BOX BOUNDS ff ff ff
-6.0000000000000000e+01 6.0000000000000000e+01
-4.0000000000000000e+01 4.0000000000000000e+01
-4.0000000000000000e+01 4.0000000000000000e+01
ITEM: ATOMS id type x y z
1 1 -27.602 -4.326 -2.855
2 1 -27.066 -2.249 -4.67
3 1 -26.262 -4.052 -3.232
4 1 -25.994 -3.047 -4.193
5 1 -24.654 -2.658 -4.45
6 1 -23.85 -4.326 -2.855
7 1 -23.582 -3.41 -3.903
8 1 -22.778 -4.766 -2.037
9 1 -22.242 -3.047 -4.193
10 1 -21.974 -1.821 -4.853
11 1 -21.438 -4.564 -2.456
12 1 -21.17 -3.746 -3.582
13 1 -19.83 -3.41 -3.903
14 1 -19.562 -2.249 -4.67
15 1 -19.026 -4.766 -2.037
16 1 -18.758 -4.052 -3.232
17 1 -18.222 -1.821 -4.853
18 1 -17.418 -3.746 -3.582
19 1 -17.151 -2.658 -4.45
20 1 -16.347 -4.326 -2.855
21 1 -15.811 -2.249 -4.67
22 1 -15.007 -4.052 -3.232
23 1 -14.739 -3.047 -4.193
24 1 -13.935 -4.564 -2.456
25 1 -13.399 -2.658 -4.45
26 1 -12.595 -4.326 -2.855
27 1 -12.327 -3.41 -3.903
28 1 -11.523 -4.766 -2.037
29 1 -10.987 -3.047 -4.193
30 1 -10.719 -1.821 -4.853
31 1 -10.183 -4.564 -2.456
32 1 -9.915 -3.746 -3.582
33 1 -8.575 -3.41 -3.903
34 1 -8.307 -2.249 -4.67
35 1 -7.771 -4.766 -2.037
36 1 -7.503 -4.052 -3.232
37 1 -6.967 -1.821 -4.853
38 1 -6.163 -3.746 -3.582
39 1 -5.895 -2.658 -4.45
40 1 -5.092 -4.326 -2.855
41 1 -4.556 -2.249 -4.67
42 1 -3.752 -4.052 -3.232
43 1 -3.484 -3.047 -4.193
44 1 -2.68 -4.564 -2.456
45 1 -2.144 -2.658 -4.45
46 1 -1.34 -4.326 -2.855
47 1 -1.072 -3.41 -3.903
48 1 -0.268 -4.766 -2.037
49 1 0.268 -3.047 -4.193
50 1 0.536 -1.821 -4.853
51 1 1.072 -4.564 -2.456
52 1 1.34 -3.746 -3.582
53 1 2.68 -3.41 -3.903
54 1 2.948 -2.249 -4.67
55 1 3.484 -4.766 -2.037
56 1 3.752 -4.052 -3.232
57 1 4.288 -1.821 -4.853
58 1 5.092 -3.746 -3.582
59 1 5.36 -2.658 -4.45
60 1 6.163 -4.326 -2.855
61 1 6.699 -2.249 -4.67
62 1 7.503 -4.052 -3.232
63 1 7.771 -3.047 -4.193
64 1 8.575 -4.564 -2.456
65 1 9.111 -2.658 -4.45
66 1 9.915 -4.326 -2.855
67 1 10.183 -3.41 -3.903
68 1 10.987 -4.766 -2.037
69 1 11.523 -3.047 -4.193
70 1 11.791 -1.821 -4.853
71 1 12.327 -4.564 -2.456
72 1 13.935 -3.41 -3.903
73 1 14.203 -2.249 -4.67
74 1 14.739 -4.766 -2.037
75 1 15.007 -4.052 -3.232
76 1 15.543 -1.821 -4.853
77 1 16.347 -3.746 -3.582
78 1 16.615 -2.658 -4.45
79 1 17.418 -4.326 -2.855
80 1 17.954 -2.249 -4.67
81 1 18.758 -4.052 -3.232
82 1 19.026 -3.047 -4.193
83 1 19.83 -4.564 -2.456
84 1 20.366 -2.658 -4.45
85 1 21.17 -4.326 -2.855
86 1 21.438 -3.41 -3.903
87 1 22.242 -4.766 -2.037
88 1 22.778 -3.047 -4.193
89 1 23.582 -4.564 -2.456
90 1 23.85 -3.746 -3.582
91 1 25.19 -3.41 -3.903
92 1 25.458 -2.249 -4.67
93 1 25.994 -4.766 -2.037
94 1 26.262 -4.052 -3.232
95 1 26.798 -1.821 -4.853
96 1 27.602 -3.746 -3.582
97 1 27.87 -2.658 -4.45
98 1 -27.87 0 -5.183
99 1 -27.602 1.379 -4.996
100 1 -26.798 -0.925 -5.1
101 1 -25.458 -0.465 -5.162
102 1 -25.19 0.925 -5.1
103 1 -24.386 -1.379 -4.996
104 1 -23.85 1.379 -4.996
105 1 -23.046 -0.925 -5.1
106 1 -22.778 0.465 -5.162
107 1 -21.438 0.925 -5.1
108 1 -20.634 -1.379 -4.996
109 1 -20.366 0 -5.183
110 1 -19.026 0.465 -5.162
111 1 -17.954 -0.465 -5.162
112 1 -16.615 0 -5.183
113 1 -16.347 1.379 -4.996
114 1 -15.543 -0.925 -5.1
115 1 -14.203 -0.465 -5.162
116 1 -13.935 0.925 -5.1
117 1 -13.131 -1.379 -4.996
118 1 -12.595 1.379 -4.996
119 1 -11.791 -0.925 -5.1
120 1 -11.523 0.465 -5.162
121 1 -10.183 0.925 -5.1
122 1 -9.379 -1.379 -4.996
123 1 -9.111 0 -5.183
124 1 -7.771 0.465 -5.162
125 1 -6.699 -0.465 -5.162
126 1 -5.36 0 -5.183
127 1 -5.092 1.379 -4.996
128 1 -4.288 -0.925 -5.1
129 1 -2.948 -0.465 -5.162
130 1 -2.68 0.925 -5.1
131 1 -1.876 -1.379 -4.996
132 1 -1.34 1.379 -4.996
133 1 -0.536 -0.925 -5.1
134 1 -0.268 0.465 -5.162
135 1 1.072 0.925 -5.1
136 1 1.876 -1.379 -4.996
137 1 2.144 0 -5.183
138 1 3.484 0.465 -5.162
139 1 4.556 -0.465 -5.162
140 1 5.895 0 -5.183
141 1 6.163 1.379 -4.996
142 1 6.967 -0.925 -5.1
143 1 8.307 -0.465 -5.162
144 1 8.575 0.925 -5.1
145 1 9.379 -1.379 -4.996
146 1 9.915 1.379 -4.996
147 1 10.719 -0.925 -5.1
148 1 10.987 0.465 -5.162
149 1 12.327 0.925 -5.1
150 1 13.131 -1.379 -4.996
151 1 13.399 0 -5.183
152 1 14.739 0.465 -5.162
153 1 15.811 -0.465 -5.162
154 1 17.151 0 -5.183
155 1 17.418 1.379 -4.996
156 1 18.222 -0.925 -5.1
157 1 19.562 -0.465 -5.162
158 1 19.83 0.925 -5.1
159 1 21.17 1.379 -4.996
160 1 21.974 -0.925 -5.1
161 1 22.242 0.465 -5.162
162 1 23.582 0.925 -5.1
163 1 24.386 -1.379 -4.996
164 1 24.654 0 -5.183
165 1 25.994 0.465 -5.162
166 1 27.066 -0.465 -5.162
167 1 -27.066 3.746 -3.582
168 1 -26.798 4.564 -2.456
169 1 -26.262 1.821 -4.853
170 1 -25.994 3.047 -4.193
171 1 -25.458 4.766 -2.037
172 1 -24.654 3.41 -3.903
173 1 -24.386 4.326 -2.855
174 1 -23.582 2.658 -4.45
175 1 -23.046 4.564 -2.456
176 1 -22.242 3.047 -4.193
177 1 -21.974 4.052 -3.232
178 1 -21.17 2.249 -4.67
179 1 -20.634 4.326 -2.855
180 1 -19.83 2.658 -4.45
181 1 -19.562 3.746 -3.582
182 1 -18.758 1.821 -4.853
183 1 -18.222 4.052 -3.232
184 1 -17.954 4.766 -2.037
185 1 -17.418 2.249 -4.67
186 1 -17.151 3.41 -3.903
187 1 -15.811 3.746 -3.582
188 1 -15.543 4.564 -2.456
189 1 -15.007 1.821 -4.853
190 1 -14.739 3.047 -4.193
191 1 -14.203 4.766 -2.037
192 1 -13.399 3.41 -3.903
193 1 -13.131 4.326 -2.855
194 1 -12.327 2.658 -4.45
195 1 -11.791 4.564 -2.456
196 1 -10.987 3.047 -4.193
197 1 -10.719 4.052 -3.232
198 1 -9.915 2.249 -4.67
199 1 -9.379 4.326 -2.855
200 1 -8.575 2.658 -4.45
201 1 -8.307 3.746 -3.582
202 1 -7.503 1.821 -4.853
203 1 -6.967 4.052 -3.232
204 1 -6.699 4.766 -2.037
205 1 -6.163 2.249 -4.67
206 1 -5.895 3.41 -3.903
207 1 -4.556 3.746 -3.582
208 1 -4.288 4.564 -2.456
209 1 -3.752 1.821 -4.853
210 1 -2.948 4.766 -2.037
211 1 -2.144 3.41 -3.903
212 1 -1.876 4.326 -2.855
213 1 -1.072 2.658 -4.45
214 1 -0.536 4.564 -2.456
215 1 0.268 3.047 -4.193
216 1 0.536 4.052 -3.232
217 1 1.34 2.249 -4.67
218 1 1.876 4.326 -2.855
219 1 2.948 3.746 -3.582
220 1 3.752 1.821 -4.853
221 1 4.288 4.052 -3.232
222 1 4.556 4.766 -2.037
223 1 5.092 2.249 -4.67
224 1 5.36 3.41 -3.903
225 1 6.699 3.746 -3.582
226 1 6.967 4.564 -2.456
227 1 7.503 1.821 -4.853
228 1 7.771 3.047 -4.193
229 1 8.307 4.766 -2.037
230 1 9.111 3.41 -3.903
231 1 9.379 4.326 -2.855
232 1 10.183 2.658 -4.45
233 1 10.719 4.564 -2.456
234 1 11.523 3.047 -4.193
235 1 11.791 4.052 -3.232
236 1 12.595 2.249 -4.67
237 1 13.131 4.326 -2.855
238 1 13.935 2.658 -4.45
239 1 14.203 3.746 -3.582
240 1 15.007 1.821 -4.853
241 1 15.543 4.052 -3.232
242 1 15.811 4.766 -2.037
243 1 16.347 2.249 -4.67
244 1 16.615 3.41 -3.903
245 1 17.954 3.746 -3.582
246 1 18.222 4.564 -2.456
247 1 18.758 1.821 -4.853
248 1 19.026 3.047 -4.193
249 1 19.562 4.766 -2.037
250 1 20.366 3.41 -3.903
251 1 20.634 4.326 -2.855
252 1 21.438 2.658 -4.45
253 1 21.974 4.564 -2.456
254 1 22.778 3.047 -4.193
255 1 23.046 4.052 -3.232
256 1 23.85 2.249 -4.67
257 1 24.386 4.326 -2.855
258 1 25.19 2.658 -4.45
259 1 25.458 3.746 -3.582
260 1 26.262 1.821 -4.853
261 1 26.798 4.052 -3.232
262 1 27.066 4.766 -2.037
263 1 27.602 2.249 -4.67
264 1 27.87 3.41 -3.903
265 1 -27.87 -4.93 -1.602
266 1 -27.066 -5.136 0.696
267 1 -26.798 -5.136 -0.696
268 1 -25.994 -4.93 1.602
269 1 -25.458 -5.053 -1.153
270 1 -24.654 -5.053 1.153
271 1 -24.386 -5.178 -0.233
272 1 -23.046 -5.136 -0.696
273 1 -22.242 -4.93 1.602
274 1 -21.974 -5.178 0.233
275 1 -20.634 -5.178 -0.233
276 1 -20.366 -4.93 -1.602
277 1 -19.562 -5.136 0.696
278 1 -18.222 -5.178 0.233
279 1 -17.954 -5.053 -1.153
280 1 -17.151 -5.053 1.153
281 1 -16.615 -4.93 -1.602
282 1 -15.811 -5.136 0.696
283 1 -15.543 -5.136 -0.696
284 1 -14.739 -4.93 1.602
285 1 -14.203 -5.053 -1.153
286 1 -13.399 -5.053 1.153
287 1 -13.131 -5.178 -0.233
288 1 -11.791 -5.136 -0.696
289 1 -10.987 -4.93 1.602
290 1 -10.719 -5.178 0.233
291 1 -9.379 -5.178 -0.233
292 1 -9.111 -4.93 -1.602
293 1 -8.307 -5.136 0.696
294 1 -6.967 -5.178 0.233
295 1 -6.699 -5.053 -1.153
296 1 -5.895 -5.053 1.153
297 1 -5.36 -4.93 -1.602
298 1 -4.556 -5.136 0.696
299 1 -4.288 -5.136 -0.696
300 1 -3.484 -4.93 1.602
301 1 -2.948 -5.053 -1.153
302 1 -2.144 -5.053 1.153
303 1 -1.876 -5.178 -0.233
304 1 -0.536 -5.136 -0.696
305 1 0.268 -4.93 1.602
306 1 0.536 -5.178 0.233
307 1 1.876 -5.178 -0.233
308 1 2.144 -4.93 -1.602
309 1 2.948 -5.136 0.696
310 1 4.288 -5.178 0.233
311 1 4.556 -5.053 -1.153
312 1 5.36 -5.053 1.153
313 1 5.895 -4.93 -1.602
314 1 6.699 -5.136 0.696
315 1 6.967 -5.136 -0.696
316 1 7.771 -4.93 1.602
317 1 8.307 -5.053 -1.153
318 1 9.111 -5.053 1.153
319 1 9.379 -5.178 -0.233
320 1 10.719 -5.136 -0.696
321 1 11.523 -4.93 1.602
322 1 11.791 -5.178 0.233
323 1 13.131 -5.178 -0.233
324 1 13.399 -4.93 -1.602
325 1 14.203 -5.136 0.696
326 1 15.543 -5.178 0.233
327 1 15.811 -5.053 -1.153
328 1 16.615 -5.053 1.153
329 1 17.151 -4.93 -1.602
330 1 17.954 -5.136 0.696
331 1 18.222 -5.136 -0.696
332 1 19.026 -4.93 1.602
333 1 19.562 -5.053 -1.153
334 1 20.366 -5.053 1.153
335 1 20.634 -5.178 -0.233
336 1 21.974 -5.136 -0.696
337 1 22.778 -4.93 1.602
338 1 23.046 -5.178 0.233
339 1 24.386 -5.178 -0.233
340 1 24.654 -4.93 -1.602
341 1 25.458 -5.136 0.696
342 1 26.798 -5.178 0.233
343 1 27.066 -5.053 -1.153
344 1 27.87 -5.053 1.153
345 1 -27.87 4.93 -1.602
346 1 -27.602 5.178 -0.233
347 1 -26.262 5.178 0.233
348 1 -25.994 4.93 1.602
349 1 -25.19 5.136 -0.696
350 1 -23.85 5.178 -0.233
351 1 -23.582 5.053 1.153
352 1 -22.778 5.053 -1.153
353 1 -22.242 4.93 1.602
354 1 -21.438 5.136 -0.696
355 1 -21.17 5.136 0.696
356 1 -20.366 4.93 -1.602
357 1 -19.83 5.053 1.153
358 1 -19.026 5.053 -1.153
359 1 -18.758 5.178 0.233
360 1 -17.418 5.136 0.696
361 1 -16.615 4.93 -1.602
362 1 -16.347 5.178 -0.233
363 1 -15.007 5.178 0.233
364 1 -14.739 4.93 1.602
365 1 -13.935 5.136 -0.696
366 1 -12.595 5.178 -0.233
367 1 -12.327 5.053 1.153
368 1 -11.523 5.053 -1.153
369 1 -10.987 4.93 1.602
370 1 -10.183 5.136 -0.696
371 1 -9.915 5.136 0.696
372 1 -9.111 4.93 -1.602
373 1 -8.575 5.053 1.153
374 1 -7.771 5.053 -1.153
375 1 -7.503 5.178 0.233
376 1 -6.163 5.136 0.696
377 1 -5.36 4.93 -1.602
378 1 -5.092 5.178 -0.233
379 1 -3.752 5.178 0.233
380 1 -3.484 4.93 1.602
381 1 -2.68 5.136 -0.696
382 1 -1.34 5.178 -0.233
383 1 -1.072 5.053 1.153
384 1 -0.268 5.053 -1.153
385 1 0.268 4.93 1.602
386 1 1.072 5.136 -0.696
387 1 1.34 5.136 0.696
388 1 2.144 4.93 -1.602
389 1 2.68 5.053 1.153
390 1 3.484 5.053 -1.153
391 1 3.752 5.178 0.233
392 1 5.092 5.136 0.696
393 1 5.895 4.93 -1.602
394 1 6.163 5.178 -0.233
395 1 7.503 5.178 0.233
396 1 7.771 4.93 1.602
397 1 8.575 5.136 -0.696
398 1 9.915 5.178 -0.233
399 1 10.183 5.053 1.153
400 1 10.987 5.053 -1.153
401 1 11.523 4.93 1.602
402 1 12.327 5.136 -0.696
403 1 12.595 5.136 0.696
404 1 13.399 4.93 -1.602
405 1 13.935 5.053 1.153
406 1 14.739 5.053 -1.153
407 1 15.007 5.178 0.233
408 1 16.347 5.136 0.696
409 1 17.151 4.93 -1.602
410 1 17.418 5.178 -0.233
411 1 18.758 5.178 0.233
412 1 19.026 4.93 1.602
413 1 19.83 5.136 -0.696
414 1 21.17 5.178 -0.233
415 1 21.438 5.053 1.153
416 1 22.242 5.053 -1.153
417 1 22.778 4.93 1.602
418 1 23.582 5.136 -0.696
419 1 23.85 5.136 0.696
420 1 24.654 4.93 -1.602
421 1 25.19 5.053 1.153
422 1 25.994 5.053 -1.153
423 1 26.262 5.178 0.233
424 1 27.602 5.136 0.696
425 1 -27.87 -3.047 4.193
426 1 -27.602 -4.052 3.232
427 1 -26.798 -2.249 4.67
428 1 -26.262 -4.326 2.855
429 1 -25.458 -2.658 4.45
430 1 -25.19 -3.746 3.582
431 1 -24.386 -1.821 4.853
432 1 -23.85 -4.052 3.232
433 1 -23.582 -4.766 2.037
434 1 -23.046 -2.249 4.67
435 1 -22.778 -3.41 3.903
436 1 -21.438 -3.746 3.582
437 1 -21.17 -4.564 2.456
438 1 -20.634 -1.821 4.853
439 1 -20.366 -3.047 4.193
440 1 -19.83 -4.766 2.037
441 1 -19.026 -3.41 3.903
442 1 -18.758 -4.326 2.855
443 1 -17.954 -2.658 4.45
444 1 -17.418 -4.564 2.456
445 1 -16.615 -3.047 4.193
446 1 -16.347 -4.052 3.232
447 1 -15.543 -2.249 4.67
448 1 -15.007 -4.326 2.855
449 1 -13.935 -3.746 3.582
450 1 -13.131 -1.821 4.853
451 1 -12.595 -4.052 3.232
452 1 -12.327 -4.766 2.037
453 1 -11.791 -2.249 4.67
454 1 -11.523 -3.41 3.903
455 1 -10.183 -3.746 3.582
456 1 -9.915 -4.564 2.456
457 1 -9.379 -1.821 4.853
458 1 -9.111 -3.047 4.193
459 1 -8.575 -4.766 2.037
460 1 -7.771 -3.41 3.903
461 1 -7.503 -4.326 2.855
462 1 -6.699 -2.658 4.45
463 1 -6.163 -4.564 2.456
464 1 -5.36 -3.047 4.193
465 1 -5.092 -4.052 3.232
466 1 -4.288 -2.249 4.67
467 1 -3.752 -4.326 2.855
468 1 -2.948 -2.658 4.45
469 1 -2.68 -3.746 3.582
470 1 -1.876 -1.821 4.853
471 1 -1.34 -4.052 3.232
472 1 -1.072 -4.766 2.037
473 1 -0.536 -2.249 4.67
474 1 -0.268 -3.41 3.903
475 1 1.072 -3.746 3.582
476 1 1.34 -4.564 2.456
477 1 1.876 -1.821 4.853
478 1 2.144 -3.047 4.193
479 1 2.68 -4.766 2.037
480 1 3.484 -3.41 3.903
481 1 3.752 -4.326 2.855
482 1 4.556 -2.658 4.45
483 1 5.092 -4.564 2.456
484 1 5.895 -3.047 4.193
485 1 6.163 -4.052 3.232
486 1 6.967 -2.249 4.67
487 1 7.503 -4.326 2.855
488 1 8.307 -2.658 4.45
489 1 8.575 -3.746 3.582
490 1 9.379 -1.821 4.853
491 1 9.915 -4.052 3.232
492 1 10.183 -4.766 2.037
493 1 10.719 -2.249 4.67
494 1 10.987 -3.41 3.903
495 1 12.327 -3.746 3.582
496 1 12.595 -4.564 2.456
497 1 13.131 -1.821 4.853
498 1 13.399 -3.047 4.193
499 1 13.935 -4.766 2.037
500 1 14.739 -3.41 3.903
501 1 15.007 -4.326 2.855
502 1 15.811 -2.658 4.45
503 1 16.347 -4.564 2.456
504 1 17.151 -3.047 4.193
505 1 17.418 -4.052 3.232
506 1 18.222 -2.249 4.67
507 1 18.758 -4.326 2.855
508 1 19.562 -2.658 4.45
509 1 19.83 -3.746 3.582
510 1 21.17 -4.052 3.232
511 1 21.438 -4.766 2.037
512 1 21.974 -2.249 4.67
513 1 22.242 -3.41 3.903
514 1 23.582 -3.746 3.582
515 1 23.85 -4.564 2.456
516 1 24.386 -1.821 4.853
517 1 24.654 -3.047 4.193
518 1 25.19 -4.766 2.037
519 1 25.994 -3.41 3.903
520 1 26.262 -4.326 2.855
521 1 27.066 -2.658 4.45
522 1 27.602 -4.564 2.456
523 1 -27.066 -0.925 5.1
524 1 -26.262 1.379 4.996
525 1 -25.994 0 5.183
526 1 -24.654 -0.465 5.162
527 1 -23.582 0.465 5.162
528 1 -22.242 0 5.183
529 1 -21.974 -1.379 4.996
530 1 -21.17 0.925 5.1
531 1 -19.83 0.465 5.162
532 1 -19.562 -0.925 5.1
533 1 -18.758 1.379 4.996
534 1 -18.222 -1.379 4.996
535 1 -17.418 0.925 5.1
536 1 -17.151 -0.465 5.162
537 1 -15.811 -0.925 5.1
538 1 -15.007 1.379 4.996
539 1 -14.739 0 5.183
540 1 -13.399 -0.465 5.162
541 1 -12.327 0.465 5.162
542 1 -10.987 0 5.183
543 1 -10.719 -1.379 4.996
544 1 -9.915 0.925 5.1
545 1 -8.575 0.465 5.162
546 1 -8.307 -0.925 5.1
547 1 -7.503 1.379 4.996
548 1 -6.967 -1.379 4.996
549 1 -6.163 0.925 5.1
550 1 -5.895 -0.465 5.162
551 1 -4.556 -0.925 5.1
552 1 -3.752 1.379 4.996
553 1 -3.484 0 5.183
554 1 -2.144 -0.465 5.162
555 1 -1.072 0.465 5.162
556 1 0.268 0 5.183
557 1 0.536 -1.379 4.996
558 1 1.34 0.925 5.1
559 1 2.68 0.465 5.162
560 1 2.948 -0.925 5.1
561 1 3.752 1.379 4.996
562 1 4.288 -1.379 4.996
563 1 5.092 0.925 5.1
564 1 5.36 -0.465 5.162
565 1 6.699 -0.925 5.1
566 1 7.503 1.379 4.996
567 1 7.771 0 5.183
568 1 9.111 -0.465 5.162
569 1 10.183 0.465 5.162
570 1 11.523 0 5.183
571 1 11.791 -1.379 4.996
572 1 12.595 0.925 5.1
573 1 13.935 0.465 5.162
574 1 14.203 -0.925 5.1
575 1 15.007 1.379 4.996
576 1 15.543 -1.379 4.996
577 1 16.347 0.925 5.1
578 1 16.615 -0.465 5.162
579 1 17.954 -0.925 5.1
580 1 18.758 1.379 4.996
581 1 19.026 0 5.183
582 1 20.366 -0.465 5.162
583 1 21.438 0.465 5.162
584 1 22.778 0 5.183
585 1 23.046 -1.379 4.996
586 1 23.85 0.925 5.1
587 1 25.19 0.465 5.162
588 1 25.458 -0.925 5.1
589 1 26.262 1.379 4.996
590 1 26.798 -1.379 4.996
591 1 27.602 0.925 5.1
592 1 27.87 -0.465 5.162
593 1 -27.87 3.047 4.193
594 1 -27.602 1.821 4.853
595 1 -27.066 4.564 2.456
596 1 -26.798 3.746 3.582
597 1 -25.458 3.41 3.903
598 1 -25.19 2.249 4.67
599 1 -24.654 4.766 2.037
600 1 -24.386 4.052 3.232
601 1 -23.85 1.821 4.853
602 1 -23.046 3.746 3.582
603 1 -22.778 2.658 4.45
604 1 -21.974 4.326 2.855
605 1 -21.438 2.249 4.67
606 1 -20.634 4.052 3.232
607 1 -20.366 3.047 4.193
608 1 -19.562 4.564 2.456
609 1 -19.026 2.658 4.45
610 1 -18.222 4.326 2.855
611 1 -17.954 3.41 3.903
612 1 -17.151 4.766 2.037
613 1 -16.615 3.047 4.193
614 1 -16.347 1.821 4.853
615 1 -15.811 4.564 2.456
616 1 -15.543 3.746 3.582
617 1 -14.203 3.41 3.903
618 1 -13.935 2.249 4.67
619 1 -13.399 4.766 2.037
620 1 -13.131 4.052 3.232
621 1 -12.595 1.821 4.853
622 1 -11.791 3.746 3.582
623 1 -11.523 2.658 4.45
624 1 -10.719 4.326 2.855
625 1 -10.183 2.249 4.67
626 1 -9.379 4.052 3.232
627 1 -9.111 3.047 4.193
628 1 -8.307 4.564 2.456
629 1 -7.771 2.658 4.45
630 1 -6.967 4.326 2.855
631 1 -6.699 3.41 3.903
632 1 -5.895 4.766 2.037
633 1 -5.36 3.047 4.193
634 1 -5.092 1.821 4.853
635 1 -4.556 4.564 2.456
636 1 -4.288 3.746 3.582
637 1 -2.948 3.41 3.903
638 1 -2.68 2.249 4.67
639 1 -2.144 4.766 2.037
640 1 -1.876 4.052 3.232
641 1 -1.34 1.821 4.853
642 1 -0.536 3.746 3.582
643 1 -0.268 2.658 4.45
644 1 0.536 4.326 2.855
645 1 1.072 2.249 4.67
646 1 1.876 4.052 3.232
647 1 2.144 3.047 4.193
648 1 2.948 4.564 2.456
649 1 3.484 2.658 4.45
650 1 4.288 4.326 2.855
651 1 4.556 3.41 3.903
652 1 5.36 4.766 2.037
653 1 5.895 3.047 4.193
654 1 6.163 1.821 4.853
655 1 6.699 4.564 2.456
656 1 6.967 3.746 3.582
657 1 8.307 3.41 3.903
658 1 8.575 2.249 4.67
659 1 9.111 4.766 2.037
660 1 9.379 4.052 3.232
661 1 9.915 1.821 4.853
662 1 10.719 3.746 3.582
663 1 10.987 2.658 4.45
664 1 11.791 4.326 2.855
665 1 12.327 2.249 4.67
666 1 13.131 4.052 3.232
667 1 13.399 3.047 4.193
668 1 14.203 4.564 2.456
669 1 14.739 2.658 4.45
670 1 15.543 4.326 2.855
671 1 15.811 3.41 3.903
672 1 16.615 4.766 2.037
673 1 17.151 3.047 4.193
674 1 17.418 1.821 4.853
675 1 17.954 4.564 2.456
676 1 18.222 3.746 3.582
677 1 19.562 3.41 3.903
678 1 19.83 2.249 4.67
679 1 20.366 4.766 2.037
680 1 20.634 4.052 3.232
681 1 21.17 1.821 4.853
682 1 21.974 3.746 3.582
683 1 22.242 2.658 4.45
684 1 23.046 4.326 2.855
685 1 23.582 2.249 4.67
686 1 24.386 4.052 3.232
687 1 24.654 3.047 4.193
688 1 25.458 4.564 2.456
689 1 25.994 2.658 4.45
690 1 26.798 4.326 2.855
691 1 27.066 3.41 3.903
692 1 27.87 4.766 2.037
ITEM: TIMESTEP
100
ITEM: NUMBER OF ATOMS
692
ITEM: BOX BOUNDS ff ff ff
-6.0000000000000000e+01 6.0000000000000000e+01
-4.0000000000000000e+01 4.0000000000000000e+01
-4.0000000000000000e+01 4.0000000000000000e+01
ITEM: ATOMS id type x y z
1 1 -27.602 -4.326 -2.855
2 1 -27.1011 -2.20764 -4.73001
3 1 -26.2898 -4.13465 -3.42269
4 1 -26.0341 -3.03916 -4.25941
5 1 -24.64 -2.67908 -4.46297
6 1 -23.6461 -4.48991 -3.05887
7 1 -23.5095 -3.45074 -3.96213
8 1 -22.658 -4.80868 -2.17305
9 1 -22.2069 -3.07278 -4.23403
10 1 -21.9681 -1.85407 -4.84614
11 1 -21.2919 -4.58784 -2.55619
12 1 -21.1173 -3.7545 -3.65988
13 1 -19.7728 -3.34169 -3.90385
14 1 -19.516 -2.22591 -4.71602
15 1 -18.936 -4.69386 -2.06443
16 1 -18.6952 -3.99688 -3.26028
17 1 -18.1511 -1.78264 -4.88924
18 1 -17.3694 -3.70306 -3.58439
19 1 -17.0818 -2.58563 -4.43589
20 1 -16.3144 -4.2766 -2.84774
21 1 -15.7702 -2.22332 -4.66149
22 1 -14.9916 -4.04688 -3.25262
23 1 -14.7282 -3.02033 -4.16239
24 1 -13.9113 -4.4576 -2.4572
25 1 -13.3757 -2.66283 -4.43264
26 1 -12.5855 -4.26465 -2.85603
27 1 -12.3399 -3.47668 -3.93152
28 1 -11.5045 -4.65416 -2.02362
29 1 -11.0042 -3.07989 -4.22215
30 1 -10.7027 -1.85008 -4.80534
31 1 -10.1889 -4.52789 -2.4913
32 1 -9.88698 -3.76612 -3.6532
33 1 -8.54968 -3.41067 -3.90405
34 1 -8.28299 -2.22768 -4.58677
35 1 -7.77001 -4.78334 -2.05291
36 1 -7.50661 -4.00801 -3.18017
37 1 -6.93681 -1.81078 -4.77351
38 1 -6.183 -3.72069 -3.47575
39 1 -5.90737 -2.65108 -4.34207
40 1 -5.10563 -4.3361 -2.80495
41 1 -4.5316 -2.23678 -4.54257
42 1 -3.7702 -4.02483 -3.13811
43 1 -3.44726 -2.98522 -4.06048
44 1 -2.67281 -4.57373 -2.40044
45 1 -2.09695 -2.5503 -4.26223
46 1 -1.32333 -4.29888 -2.77401
47 1 -1.02469 -3.32166 -3.73555
48 1 -0.239565 -4.82067 -2.00619
49 1 0.304939 -2.90117 -4.00358
50 1 0.581384 -1.67445 -4.63048
51 1 1.07604 -4.53087 -2.37674
52 1 1.34722 -3.63619 -3.42116
53 1 2.68018 -3.31659 -3.7012
54 1 2.96228 -2.16741 -4.43097
55 1 3.42964 -4.6979 -1.88378
56 1 3.71934 -3.96584 -3.05305
57 1 4.25407 -1.73774 -4.57254
58 1 5.04203 -3.67003 -3.42976
59 1 5.31812 -2.53681 -4.17332
60 1 6.10244 -4.31901 -2.78246
61 1 6.659 -2.16078 -4.43943
62 1 7.4432 -4.05331 -3.24126
63 1 7.68341 -3.0074 -4.10929
64 1 8.50628 -4.65838 -2.5359
65 1 9.03461 -2.70591 -4.43219
66 1 9.87438 -4.51157 -2.96212
67 1 10.0981 -3.55939 -3.99865
68 1 10.9525 -4.94941 -2.08635
69 1 11.4518 -3.20039 -4.35787
70 1 11.7664 -1.83199 -4.68736
71 1 12.3094 -4.93438 -2.47591
72 1 14.0357 -3.43782 -3.81435
73 1 14.2506 -2.27603 -4.55004
74 1 14.7847 -4.82263 -2.01409
75 1 15.0431 -4.14139 -3.20208
76 1 15.5829 -1.8711 -4.66778
77 1 16.3986 -3.82563 -3.53966
78 1 16.654 -2.69199 -4.32984
79 1 17.4614 -4.35288 -2.79847
80 1 17.9916 -2.33817 -4.60478
81 1 18.7737 -4.12367 -3.24059
82 1 19.044 -3.24459 -4.29579
83 1 19.8054 -4.5253 -2.42588
84 1 20.3433 -3.10803 -4.73812
85 1 21.1263 -4.42426 -2.84478
86 1 21.3821 -3.77578 -4.06483
87 1 22.1834 -4.74368 -1.99872
88 1 22.7208 -3.58242 -4.45975
89 1 23.5584 -4.65594 -2.44868
90 1 23.8109 -4.07544 -3.69346
91 1 25.1316 -3.55505 -3.95282
92 1 25.3612 -2.34462 -4.64842
93 1 25.9503 -4.74897 -2.04831
94 1 26.2323 -4.06328 -3.22607
95 1 26.7095 -1.92642 -4.76688
96 1 27.602 -3.746 -3.582
97 1 27.87 -2.658 -4.45
98 1 -27.87 0 -5.183
99 1 -27.602 1.379 -4.996
100 1 -26.8055 -0.889168 -5.06767
101 1 -25.4799 -0.48579 -5.06262
102 1 -25.2039 0.868064 -5.01343
103 1 -24.4019 -1.38335 -4.93792
104 1 -23.8891 1.3533 -4.93398
105 1 -23.0614 -0.944148 -5.04337
106 1 -22.823 0.43799 -5.09025
107 1 -21.467 0.898935 -5.05362
108 1 -20.6153 -1.36612 -4.9693
109 1 -20.3765 0.0103077 -5.10482
110 1 -19.0241 0.491742 -5.12116
111 1 -17.932 -0.428794 -5.14622
112 1 -16.6008 0.0311639 -5.12018
113 1 -16.3441 1.40634 -4.94319
114 1 -15.5136 -0.905762 -5.06851
115 1 -14.1999 -0.491942 -5.08258
116 1 -13.9332 0.891074 -5.05779
117 1 -13.1142 -1.39238 -4.94047
118 1 -12.5986 1.33657 -4.9245
119 1 -11.7856 -0.960726 -4.9911
120 1 -11.5262 0.408267 -5.04783
121 1 -10.1611 0.839544 -5.00895
122 1 -9.35515 -1.41017 -4.92585
123 1 -9.09379 -0.0512096 -5.11868
124 1 -7.7531 0.436489 -5.11481
125 1 -6.67979 -0.474505 -5.1169
126 1 -5.36179 -0.00903503 -5.13454
127 1 -5.11743 1.39591 -5.06052
128 1 -4.26809 -0.884529 -4.97725
129 1 -2.92303 -0.403095 -5.09847
130 1 -2.67447 0.958612 -5.16001
131 1 -1.83528 -1.29309 -4.86337
132 1 -1.34371 1.41358 -5.07259
133 1 -0.508893 -0.838802 -4.9382
134 1 -0.265613 0.522998 -5.17765
135 1 1.06344 0.999401 -5.08373
136 1 1.91566 -1.27433 -4.77322
137 1 2.15584 0.10543 -5.01661
138 1 3.49958 0.519393 -5.06961
139 1 4.53759 -0.397167 -4.92381
140 1 5.90292 0.0245383 -4.94126
141 1 6.22945 1.38277 -4.81945
142 1 6.95197 -0.865706 -4.80784
143 1 8.28048 -0.446639 -4.87803
144 1 8.5849 0.889103 -4.80435
145 1 9.33608 -1.37163 -4.79025
146 1 9.89835 1.31265 -4.71724
147 1 10.7047 -0.932662 -4.84027
148 1 10.9603 0.432623 -4.81906
149 1 12.322 0.875088 -4.85233
150 1 13.1375 -1.41962 -4.75776
151 1 13.3689 -0.0456673 -4.93111
152 1 14.698 0.46324 -4.90874
153 1 15.7782 -0.504109 -4.90266
154 1 17.1289 -0.0749003 -4.98123
155 1 17.3785 1.31194 -4.75885
156 1 18.2323 -0.976648 -4.9834
157 1 19.5208 -0.405654 -5.24538
158 1 19.8328 0.987466 -5.11531
159 1 21.1787 1.43923 -5.08978
160 1 22.0091 0.0378628 -6.85819
161 1 22.2025 0.622363 -5.581
162 1 23.5238 0.917326 -5.21002
163 1 24.4128 -1.39556 -5.07302
164 1 24.6419 0.00435956 -5.23254
165 1 25.9765 0.413468 -5.08997
166 1 26.991 -0.560501 -5.09402
167 1 -27.0578 3.73854 -3.54576
168 1 -26.79 4.54718 -2.41611
169 1 -26.2678 1.80533 -4.81024
170 1 -25.9996 3.01517 -4.15026
171 1 -25.451 4.79287 -2.04553
172 1 -24.6416 3.31354 -3.80367
173 1 -24.3752 4.24644 -2.78013
174 1 -23.5956 2.56944 -4.35269
175 1 -23.0326 4.47215 -2.38011
176 1 -22.2942 2.95878 -4.08326
177 1 -21.9839 3.9352 -3.13408
178 1 -21.2156 2.17008 -4.54552
179 1 -20.6298 4.27009 -2.76851
180 1 -19.8792 2.62171 -4.31322
181 1 -19.5712 3.67442 -3.46745
182 1 -18.7618 1.85719 -4.78829
183 1 -18.2005 4.05248 -3.18329
184 1 -17.9043 4.74899 -1.97189
185 1 -17.3896 2.26986 -4.60882
186 1 -17.1275 3.45769 -3.83461
187 1 -15.8028 3.81093 -3.52466
188 1 -15.524 4.63285 -2.38926
189 1 -15.0236 1.80672 -4.77168
190 1 -14.7263 3.07708 -4.14657
191 1 -14.1853 4.83366 -1.974
192 1 -13.3837 3.41385 -3.83661
193 1 -13.077 4.3261 -2.79353
194 1 -12.3285 2.61228 -4.31887
195 1 -11.722 4.55812 -2.38457
196 1 -10.9559 2.98344 -4.05982
197 1 -10.6665 3.92966 -3.08043
198 1 -9.91702 2.17241 -4.56299
199 1 -9.33932 4.20934 -2.71262
200 1 -8.58075 2.60842 -4.3755
201 1 -8.30543 3.66143 -3.51914
202 1 -7.50572 1.80835 -4.79731
203 1 -6.99445 3.95774 -3.19177
204 1 -6.70244 4.69209 -1.9924
205 1 -6.19116 2.25745 -4.74064
206 1 -5.94282 3.40672 -3.94894
207 1 -4.63994 3.78584 -3.61978
208 1 -4.30169 4.40652 -2.41286
209 1 -3.77037 1.80986 -5.10583
210 1 -2.96103 4.56852 -2.03592
211 1 -2.05409 3.50281 -4.04187
212 1 -1.89275 4.24869 -2.87487
213 1 -1.03362 2.71779 -4.57285
214 1 -0.574472 4.47271 -2.48371
215 1 0.321551 3.15071 -4.28256
216 1 0.522282 4.14999 -3.318
217 1 1.29902 2.35437 -4.84238
218 1 1.85605 4.39191 -2.8945
219 1 2.9662 4.04102 -3.65485
220 1 3.87541 1.89584 -5.14318
221 1 4.27722 4.1612 -3.30226
222 1 4.49981 4.70518 -2.0257
223 1 5.15608 2.33825 -4.76363
224 1 5.35829 3.5153 -4.01764
225 1 6.68476 3.76344 -3.63371
226 1 6.91194 4.48096 -2.48445
227 1 7.55064 1.79142 -4.69707
228 1 7.78507 3.05715 -4.17859
229 1 8.25922 4.65159 -2.02127
230 1 9.09183 3.40282 -3.83393
231 1 9.34226 4.23775 -2.79006
232 1 10.1553 2.59998 -4.25912
233 1 10.6639 4.46519 -2.40149
234 1 11.4858 2.98849 -4.06959
235 1 11.7786 4.01475 -3.15223
236 1 12.5814 2.20887 -4.49353
237 1 13.0713 4.42947 -2.86049
238 1 13.9116 2.6741 -4.3261
239 1 14.1287 3.78125 -3.51175
240 1 14.9983 1.83227 -4.66839
241 1 15.5075 4.14399 -3.23769
242 1 15.7784 4.92062 -2.07148
243 1 16.3373 2.22454 -4.49698
244 1 16.5955 3.45394 -3.82536
245 1 17.9124 3.81789 -3.42825
246 1 18.2193 4.67743 -2.39739
247 1 18.7321 1.78327 -4.65953
248 1 18.9935 3.03378 -4.00257
249 1 19.5792 4.83247 -1.98444
250 1 20.3541 3.33542 -3.74058
251 1 20.6213 4.24314 -2.74103
252 1 21.426 2.61982 -4.37006
253 1 21.969 4.5518 -2.39018
254 1 22.7555 2.98413 -4.1309
255 1 23.0111 3.9057 -3.0818
256 1 23.7765 2.17847 -4.65463
257 1 24.3348 4.22275 -2.74495
258 1 25.1538 2.53453 -4.34906
259 1 25.4288 3.6372 -3.48426
260 1 26.2546 1.76643 -4.84389
261 1 26.7805 4.04548 -3.18841
262 1 26.9808 4.86598 -2.02823
263 1 27.602 2.249 -4.67
264 1 27.87 3.41 -3.903
265 1 -27.87 -4.93 -1.602
266 1 -27.0529 -5.07238 0.714934
267 1 -26.7985 -5.21392 -0.682865
268 1 -25.9708 -4.8656 1.56534
269 1 -25.4633 -5.22368 -1.18434
270 1 -24.6269 -4.9172 1.04443
271 1 -24.3483 -5.17154 -0.312112
272 1 -22.9956 -5.08089 -0.829223
273 1 -22.2469 -4.63893 1.42588
274 1 -21.9567 -4.95679 0.0935841
275 1 -20.585 -4.99049 -0.287699
276 1 -20.2586 -4.88099 -1.64876
277 1 -19.5659 -4.8309 0.640774
278 1 -18.2226 -4.83596 0.238911
279 1 -17.9439 -4.83962 -1.11404
280 1 -17.1551 -4.67219 1.14985
281 1 -16.6118 -4.74909 -1.53824
282 1 -15.8476 -4.85324 0.706307
283 1 -15.5424 -4.88789 -0.665965
284 1 -14.748 -4.73473 1.59463
285 1 -14.2143 -4.72938 -1.15046
286 1 -13.4259 -4.86274 1.13691
287 1 -13.1673 -4.91896 -0.248234
288 1 -11.8202 -4.96286 -0.667881
289 1 -10.9728 -4.8198 1.63936
290 1 -10.7267 -4.98945 0.246889
291 1 -9.35943 -5.07101 -0.263763
292 1 -9.10724 -4.88004 -1.60838
293 1 -8.27208 -5.04308 0.629333
294 1 -6.93902 -5.08685 0.200531
295 1 -6.6869 -5.04619 -1.17224
296 1 -5.89964 -4.95425 1.09049
297 1 -5.35355 -4.90579 -1.58436
298 1 -4.60483 -5.06934 0.679265
299 1 -4.31773 -5.14064 -0.656153
300 1 -3.52946 -4.9269 1.57152
301 1 -2.96133 -5.04254 -1.10707
302 1 -2.16509 -5.02439 1.15066
303 1 -1.88974 -5.12681 -0.202256
304 1 -0.536778 -5.16464 -0.675858
305 1 0.236611 -4.87542 1.57459
306 1 0.516398 -5.14407 0.229017
307 1 1.83725 -5.1561 -0.17687
308 1 2.10377 -4.92871 -1.52011
309 1 2.92581 -5.14485 0.732598
310 1 4.27379 -5.18243 0.307955
311 1 4.50883 -5.01396 -1.04821
312 1 5.3644 -5.02576 1.18974
313 1 5.85026 -4.87391 -1.52836
314 1 6.6841 -5.16943 0.733556
315 1 6.9307 -5.12375 -0.659466
316 1 7.79031 -4.84107 1.58367
317 1 8.27731 -5.08878 -1.19157
318 1 9.0926 -4.88284 1.06058
319 1 9.3537 -5.08252 -0.283436
320 1 10.6717 -5.15166 -0.758653
321 1 11.4648 -4.80664 1.53869
322 1 11.7374 -5.15219 0.178214
323 1 13.0988 -5.1768 -0.2211
324 1 13.4287 -5.02745 -1.58054
325 1 14.1871 -5.09709 0.679255
326 1 15.5455 -5.13899 0.274564
327 1 15.8401 -5.074 -1.08926
328 1 16.6213 -4.99725 1.17898
329 1 17.1679 -4.83548 -1.4922
330 1 17.9741 -4.94727 0.769351
331 1 18.266 -4.90975 -0.575653
332 1 19.0065 -4.73171 1.64249
333 1 19.5418 -4.8187 -1.08354
334 1 20.3407 -4.81321 1.17931
335 1 20.5866 -4.95015 -0.190097
336 1 21.9293 -4.98357 -0.644917
337 1 22.7164 -4.84728 1.62061
338 1 22.9864 -5.04122 0.267683
339 1 24.3455 -5.02329 -0.195074
340 1 24.6378 -4.89258 -1.57234
341 1 25.4362 -4.99182 0.712791
342 1 26.7817 -5.03776 0.25072
343 1 27.0188 -4.97439 -1.16648
344 1 27.87 -5.053 1.153
345 1 -27.87 4.93 -1.602